                         Program Version 6.1.0  -  RELEASE   -
|  1>  # --------------------------------- #
|  2>  #  Geometry Optimisation            #
|  3>  # --------------------------------- #
|  4> ! XTB2 ALPB(water) Opt
|  5> *xyzfile 0 1 /home/esp/scriptDevelopment/drFrankenstein/11_PCY_CHARMM/03_GOAT_conformers/PCY_conformer_24.xyz
|  6>
|  7>
|  8>                          ****END OF INPUT****
FINAL SINGLE POINT ENERGY       -79.897703891370
FINAL SINGLE POINT ENERGY       -79.898304408610
FINAL SINGLE POINT ENERGY       -79.897329972320
FINAL SINGLE POINT ENERGY       -79.898617899950
FINAL SINGLE POINT ENERGY       -79.898610257650
FINAL SINGLE POINT ENERGY       -79.898678304700
FINAL SINGLE POINT ENERGY       -79.898698882570
FINAL SINGLE POINT ENERGY       -79.898710448640
FINAL SINGLE POINT ENERGY       -79.898716811520
FINAL SINGLE POINT ENERGY       -79.898717951290
FINAL SINGLE POINT ENERGY       -79.898718811620
                    ***********************HURRAY********************

CARTESIAN COORDINATES (ANGSTROEM)
---------------------------------
  H    -0.914599   -1.763470    0.723219
  H    -0.535892   -4.119538    3.142914
  H    -0.410308    1.937698    2.836613
  H     0.034928    4.752129   -0.855572
  H     0.346485   -2.437432    1.799191
  H    -0.132643    3.875054    1.337849
  H     0.561757   -0.688836   -0.389599
  H     1.438212    4.030262   -1.640448
  H    -4.268455   -3.667474    5.172039
  H     0.812864    1.228002   -1.874373
  H    -4.618840   -1.505958    4.006060
  H    -0.608899    3.474282   -4.527521
  H    -2.224717   -4.981491    4.703497
  N     0.106709    3.735997   -3.839872
  C    -0.391782    3.589001   -2.582745
  C    -1.762651    3.099595   -2.597259
  C     0.401206    3.847071   -1.349922
  O    -2.310627    2.843522   -3.690914
  C     0.324130    2.685590   -0.389272
  C     0.009763    2.876329    0.952897
  C    -0.143680    1.799063    1.800396
  C     0.008639    0.499746    1.319077
  C     0.386974    0.302786   -0.003907
  C     0.535835    1.390783   -0.843514
  O    -0.220681   -0.498600    2.220498
  C    -0.545815   -1.804051    1.753540
  C    -1.621868   -2.355043    2.652109
  C    -1.439655   -3.557923    3.318465
  C    -2.389035   -4.039472    4.205716
  C    -3.535378   -3.305105    4.470393
  C    -3.735688   -2.100021    3.828192
  C    -2.796656   -1.636229    2.908553
  N    -3.096548   -0.409941    2.248270
  O    -3.746722    0.427267    2.864182
  O    -2.736456   -0.242664    1.088591
  C    -3.690888    2.340077   -1.289742
  N    -2.405515    2.981465   -1.417867
  H    -1.882935    3.110511   -0.564751
  H    -3.590735    1.409239   -0.726994
  H    -4.386932    2.998140   -0.770369
  H    -4.065287    2.126364   -2.289022
  C     1.340159    4.117959   -4.292441
  O     2.259510    4.438763   -3.545708
  C     1.473461    4.111444   -5.788640
  H     2.273671    3.428312   -6.065819
  H     0.553824    3.819827   -6.282693
  H     1.770780    5.104983   -6.117286

FINAL SINGLE POINT ENERGY       -79.898719268900

DIPOLE MOMENT
-------------
                                X             Y             Z
Total Dipole Moment    :      0.16100      -2.42100       1.11100
                        -----------------------------------------
Magnitude (a.u.)       :      2.66861
Magnitude (Debye)      :      6.78307

                             ****ORCA TERMINATED NORMALLY****
TOTAL RUN TIME: 0 days 0 hours 0 minutes 1 seconds 815 msec
