                         Program Version 6.1.0  -  RELEASE   -
|  1>  # --------------------------------- #
|  2>  #  Geometry Optimisation            #
|  3>  # --------------------------------- #
|  4> ! XTB2 ALPB(water) Opt
|  5> *xyzfile 0 1 /home/esp/scriptDevelopment/drFrankenstein/11_PCY_CHARMM/03_GOAT_conformers/PCY_conformer_4.xyz
|  6>
|  7>
|  8>                          ****END OF INPUT****
FINAL SINGLE POINT ENERGY       -79.900107159490
FINAL SINGLE POINT ENERGY       -79.900885756860
FINAL SINGLE POINT ENERGY       -79.900974556280
FINAL SINGLE POINT ENERGY       -79.901038291590
FINAL SINGLE POINT ENERGY       -79.901283114870
FINAL SINGLE POINT ENERGY       -79.901302472980
FINAL SINGLE POINT ENERGY       -79.901321939240
FINAL SINGLE POINT ENERGY       -79.901330921340
FINAL SINGLE POINT ENERGY       -79.901334266690
FINAL SINGLE POINT ENERGY       -79.901337429180
FINAL SINGLE POINT ENERGY       -79.901339136960
FINAL SINGLE POINT ENERGY       -79.901340659860
FINAL SINGLE POINT ENERGY       -79.901341673500
FINAL SINGLE POINT ENERGY       -79.901342400590
FINAL SINGLE POINT ENERGY       -79.901343274730
                    ***********************HURRAY********************

CARTESIAN COORDINATES (ANGSTROEM)
---------------------------------
  H    -3.501845   -0.442692    2.312905
  H    -1.257065   -2.706461    0.688669
  H    -2.643863   -0.559567   -1.967727
  H     1.136459    3.213630   -0.620682
  H    -4.215840   -1.980015    1.834162
  H    -1.040976    1.105799   -2.841878
  H    -1.364034    0.316389    2.012776
  H     1.432736    2.173922   -2.021034
  H     0.717153   -4.088632    4.215226
  H     0.194799    1.965852    1.152656
  H    -1.050119   -3.027319    5.591250
  H    -0.297441    4.551863   -4.075954
  H     0.584293   -3.930082    1.744502
  N     0.291622    3.821449   -3.659540
  C    -0.014838    3.667437   -2.346420
  C    -1.087490    4.557349   -1.926302
  C     0.656782    2.687879   -1.450645
  O    -1.583931    5.355589   -2.747846
  C    -0.320471    1.670270   -0.906077
  C    -1.124337    0.942186   -1.778303
  C    -2.016686    0.008442   -1.299695
  C    -2.126760   -0.226193    0.072140
  C    -1.319887    0.486909    0.949095
  C    -0.431595    1.429212    0.455087
  O    -3.040214   -1.176570    0.435475
  C    -3.291730   -1.392746    1.806566
  C    -2.199657   -2.153774    2.514481
  C    -1.205967   -2.771497    1.764124
  C    -0.166629   -3.462608    2.360753
  C    -0.091090   -3.554250    3.744065
  C    -1.067649   -2.963765    4.514376
  C    -2.124644   -2.271018    3.913917
  N    -3.096640   -1.714507    4.779548
  O    -2.857534   -1.679622    5.986436
  O    -4.151946   -1.285498    4.313239
  C    -2.566599    5.291443   -0.117754
  N    -1.479563    4.500199   -0.638166
  H    -1.114780    3.768956   -0.047566
  H    -2.240182    5.838556    0.766102
  H    -2.870051    5.995011   -0.890968
  H    -3.413849    4.656261    0.144587
  C     1.195001    3.184507   -4.471409
  O     1.938559    2.292347   -4.083632
  C     1.169753    3.698298   -5.882080
  H     1.909030    3.164240   -6.471204
  H     0.184116    3.548941   -6.316123
  H     1.394588    4.761861   -5.895172

FINAL SINGLE POINT ENERGY       -79.901343821410

DIPOLE MOMENT
-------------
                                X             Y             Z
Total Dipole Moment    :      1.88100       0.09100      -1.52900
                        -----------------------------------------
Magnitude (a.u.)       :      2.42575
Magnitude (Debye)      :      6.16578

                             ****ORCA TERMINATED NORMALLY****
TOTAL RUN TIME: 0 days 0 hours 0 minutes 2 seconds 368 msec
