                         Program Version 6.1.0  -  RELEASE   -
|  1>  # --------------------------------- #
|  2>  #  Geometry Optimisation            #
|  3>  # --------------------------------- #
|  4> ! XTB2 ALPB(water) Opt
|  5> *xyzfile 0 1 /home/esp/scriptDevelopment/drFrankenstein/11_PCY_CHARMM/03_GOAT_conformers/PCY_conformer_41.xyz
|  6>
|  7>
|  8>                          ****END OF INPUT****
FINAL SINGLE POINT ENERGY       -79.894973348650
FINAL SINGLE POINT ENERGY       -79.895733468800
FINAL SINGLE POINT ENERGY       -79.895964028470
FINAL SINGLE POINT ENERGY       -79.896051791430
FINAL SINGLE POINT ENERGY       -79.896017897650
FINAL SINGLE POINT ENERGY       -79.896079377240
FINAL SINGLE POINT ENERGY       -79.896084126990
FINAL SINGLE POINT ENERGY       -79.896087195340
FINAL SINGLE POINT ENERGY       -79.896089366520
                    ***********************HURRAY********************

CARTESIAN COORDINATES (ANGSTROEM)
---------------------------------
  H    -1.994055   -0.875465    4.690945
  H    -0.064991   -2.215352    4.601263
  H    -3.674147    1.340033    2.153814
  H    -1.732477    1.255473   -2.763112
  H    -3.141480   -0.767641    3.327809
  H    -3.895575    2.050739   -0.182632
  H     0.446098    0.448174    1.504008
  H    -2.977148    2.436374   -2.327056
  H     0.999001   -4.426388    1.103556
  H     0.229127    1.167656   -0.851429
  H    -0.903072   -3.386994   -0.102845
  H     0.583908    3.946768   -3.329602
  H     1.384925   -3.852257    3.481332
  N     0.050178    3.070747   -3.288213
  C    -0.993872    3.203834   -2.428974
  C    -1.031531    4.522131   -1.816378
  C    -1.955144    2.109418   -2.120805
  O    -0.175001    5.374479   -2.132013
  C    -1.840076    1.678068   -0.676558
  C    -2.932226    1.724329    0.181396
  C    -2.816978    1.318184    1.497990
  C    -1.595439    0.857365    1.973522
  C    -0.495068    0.813964    1.123636
  C    -0.620541    1.225139   -0.188512
  O    -1.444850    0.449334    3.287520
  C    -2.084921   -0.790582    3.607872
  C    -1.340780   -1.912212    2.926083
  C    -0.260725   -2.494727    3.578118
  C     0.564801   -3.406422    2.941936
  C     0.350064   -3.731258    1.610371
  C    -0.704834   -3.156513    0.932609
  C    -1.557750   -2.267705    1.587523
  N    -2.650483   -1.766172    0.823414
  O    -2.477536   -1.585256   -0.375597
  O    -3.726209   -1.563374    1.377212
  C    -2.127225    6.026319   -0.223331
  N    -2.026402    4.781489   -0.944121
  H    -2.631064    4.030081   -0.653125
  H    -1.388736    6.712105   -0.634590
  H    -3.124830    6.446670   -0.344634
  H    -1.926621    5.873011    0.838052
  C     0.479884    2.020028   -4.056044
  O    -0.077161    0.929387   -4.083535
  C     1.707631    2.351925   -4.855736
  H     1.499186    3.179404   -5.529271
  H     2.518753    2.641993   -4.192692
  H     2.004403    1.481670   -5.433143

FINAL SINGLE POINT ENERGY       -79.896089932980

DIPOLE MOMENT
-------------
                                X             Y             Z
Total Dipole Moment    :      1.22900      -0.16000       1.37500
                        -----------------------------------------
Magnitude (a.u.)       :      1.85113
Magnitude (Debye)      :      4.70519

                             ****ORCA TERMINATED NORMALLY****
TOTAL RUN TIME: 0 days 0 hours 0 minutes 1 seconds 521 msec
