                         Program Version 6.1.0  -  RELEASE   -
|  1>  # --------------------------------- #
|  2>  #  Geometry Optimisation            #
|  3>  # --------------------------------- #
|  4> ! XTB2 ALPB(water) Opt
|  5> %geom
|  6> MaxIter 10
|  7> end
|  8> *xyzfile 0 1 /home/esp/scriptDevelopment/drFrankenstein/11_PCY_CHARMM/01_termini_capping/geometry_optimisation/PCY_capped.xyz
|  9>
| 10>
| 11>                          ****END OF INPUT****
FINAL SINGLE POINT ENERGY       -79.798972220630
FINAL SINGLE POINT ENERGY       -79.845096698880
FINAL SINGLE POINT ENERGY       -79.866352783120
FINAL SINGLE POINT ENERGY       -79.874058936220
FINAL SINGLE POINT ENERGY       -79.877962505730
FINAL SINGLE POINT ENERGY       -79.881123888130
FINAL SINGLE POINT ENERGY       -79.883512239620
FINAL SINGLE POINT ENERGY       -79.883908550090
FINAL SINGLE POINT ENERGY       -79.885801290620

CARTESIAN COORDINATES (ANGSTROEM)
---------------------------------
  H     0.542642   -2.030135   -1.381989
  H    -1.398452   -3.355200    1.224364
  H    -2.403132   -0.103829    1.410065
  H    -0.766408    4.450811    1.616622
  H     1.372612   -1.807931    0.164840
  H    -2.490474    2.356617    1.593539
  H     1.155323    0.209549   -0.936805
  H     0.107216    4.605977    0.086759
  H    -0.155083   -7.424844    0.801007
  H     1.064619    2.635013   -0.751241
  H     1.706777   -6.672710   -0.653268
  H    -2.265614    3.130098   -1.260660
  H    -1.702532   -5.738446    1.753393
  N    -2.540259    4.103328   -1.146981
  C    -2.000237    4.755542   -0.084972
  C    -2.723334    5.889285    0.490202
  C    -0.782368    4.175112    0.560158
  O    -3.955979    5.987513    0.407550
  C    -0.715206    2.671369    0.437484
  C    -1.691723    1.883501    1.042294
  C    -1.649203    0.509326    0.944222
  C    -0.617442   -0.115019    0.241070
  C     0.356758    0.664744   -0.373013
  C     0.300434    2.045134   -0.268543
  O    -0.671534   -1.478095    0.198138
  C     0.447670   -2.181082   -0.297017
  C     0.310493   -3.646508    0.002698
  C    -0.720499   -4.089463    0.821887
  C    -0.891870   -5.431000    1.112743
  C    -0.025776   -6.377950    0.581491
  C     1.008774   -5.968183   -0.228422
  C     1.191126   -4.610866   -0.518168
  N     2.289470   -4.272341   -1.336586
  O     2.915100   -5.177280   -1.898229
  O     2.596189   -3.084581   -1.488907
  C    -2.559907    7.933154    1.819995
  N    -1.972484    6.787966    1.164727
  H    -0.968873    6.714387    1.164419
  H    -3.486741    8.188581    1.306543
  H    -2.797861    7.701492    2.860555
  H    -1.871524    8.771893    1.779956
  C    -3.308300    4.677861   -2.143223
  O    -3.371829    5.888766   -2.286499
  C    -3.973957    3.690275   -3.052739
  H    -5.046218    3.871796   -3.023792
  H    -3.643554    3.868474   -4.073613
  H    -3.768832    2.664899   -2.766052

FINAL SINGLE POINT ENERGY       -79.886272773800

DIPOLE MOMENT
-------------
                                X             Y             Z
Total Dipole Moment    :     -0.41400       0.21400       2.33800
                        -----------------------------------------
Magnitude (a.u.)       :      2.38400
Magnitude (Debye)      :      6.05964

                             ****ORCA TERMINATED NORMALLY****
TOTAL RUN TIME: 0 days 0 hours 0 minutes 0 seconds 826 msec
