                         Program Version 6.1.0  -  RELEASE   -
|  1>  # --------------------------------- #
|  2>  #  Geometry Optimisation            #
|  3>  # --------------------------------- #
|  4> ! XTB2 ALPB(water) Opt
|  5> *xyzfile 0 1 /home/esp/scriptDevelopment/drFrankenstein/11_PCY_CHARMM/03_GOAT_conformers/PCY_conformer_26.xyz
|  6>
|  7>
|  8>                          ****END OF INPUT****
FINAL SINGLE POINT ENERGY       -79.898310885090
FINAL SINGLE POINT ENERGY       -79.898842644350
FINAL SINGLE POINT ENERGY       -79.899247504680
FINAL SINGLE POINT ENERGY       -79.899310912350
FINAL SINGLE POINT ENERGY       -79.899420537810
FINAL SINGLE POINT ENERGY       -79.899404508990
FINAL SINGLE POINT ENERGY       -79.899425691710
FINAL SINGLE POINT ENERGY       -79.899460008300
FINAL SINGLE POINT ENERGY       -79.899467707720
FINAL SINGLE POINT ENERGY       -79.899472972400
FINAL SINGLE POINT ENERGY       -79.899482564180
FINAL SINGLE POINT ENERGY       -79.899486243350
FINAL SINGLE POINT ENERGY       -79.899490532660
FINAL SINGLE POINT ENERGY       -79.899497347780
FINAL SINGLE POINT ENERGY       -79.899500348740
FINAL SINGLE POINT ENERGY       -79.899502261130
                    ***********************HURRAY********************

CARTESIAN COORDINATES (ANGSTROEM)
---------------------------------
  H    -1.670829   -0.946904    4.437579
  H    -0.922961   -3.049814    3.783524
  H    -1.182026    2.518302    2.902157
  H     1.042966    3.962152   -1.216542
  H    -2.354110    0.237342    3.288290
  H    -0.786849    3.767752    0.827316
  H     1.198718   -0.698466    1.429969
  H     1.275141    2.393839   -2.017261
  H    -1.190974   -4.421335   -0.252690
  H     1.594180    0.548412   -0.663696
  H    -1.980527   -2.178633   -0.934934
  H    -2.255409    2.210291   -2.920960
  H    -0.692231   -4.856602    2.136536
  N    -1.279956    2.013063   -2.674369
  C    -0.730003    3.063210   -2.023260
  C    -1.653131    4.190673   -1.931204
  C     0.609252    2.976973   -1.380979
  O    -2.789863    4.093783   -2.434644
  C     0.438046    2.245319   -0.063212
  C    -0.335516    2.796086    0.953182
  C    -0.563906    2.099030    2.123097
  C    -0.022125    0.829594    2.286258
  C     0.775956    0.284510    1.288449
  C     1.003358    0.991519    0.122336
  O    -0.280160    0.092179    3.431053
  C    -1.577000   -0.516329    3.440088
  C    -1.625077   -1.602952    2.393848
  C    -1.175741   -2.868899    2.750618
  C    -1.032859   -3.883932    1.820164
  C    -1.312378   -3.643140    0.482663
  C    -1.750926   -2.395523    0.096383
  C    -1.922704   -1.377525    1.039125
  N    -2.426834   -0.148472    0.539680
  O    -2.250005    0.110835   -0.653200
  O    -3.051465    0.612896    1.281960
  C    -2.064072    6.481330   -1.163562
  N    -1.232108    5.313476   -1.316747
  H    -0.299612    5.358655   -0.938232
  H    -2.217134    6.702023   -0.106689
  H    -1.602574    7.341166   -1.648751
  H    -3.024498    6.272230   -1.631181
  C    -0.769079    0.789345   -3.032765
  O     0.388005    0.457881   -2.826913
  C    -1.780502   -0.069427   -3.731404
  H    -1.316262   -1.001841   -4.036633
  H    -2.594336   -0.272014   -3.038338
  H    -2.180870    0.445943   -4.600110

FINAL SINGLE POINT ENERGY       -79.899503004280

DIPOLE MOMENT
-------------
                                X             Y             Z
Total Dipole Moment    :      1.03200      -0.36200       0.25300
                        -----------------------------------------
Magnitude (a.u.)       :      1.12253
Magnitude (Debye)      :      2.85325

                             ****ORCA TERMINATED NORMALLY****
TOTAL RUN TIME: 0 days 0 hours 0 minutes 2 seconds 743 msec
