                         Program Version 6.1.0  -  RELEASE   -
|  1>  # --------------------------------- #
|  2>  #  Geometry Optimisation            #
|  3>  # --------------------------------- #
|  4> ! XTB2 ALPB(water) Opt
|  5> *xyzfile 0 1 /home/esp/scriptDevelopment/drFrankenstein/11_PCY_CHARMM/03_GOAT_conformers/PCY_conformer_46.xyz
|  6>
|  7>
|  8>                          ****END OF INPUT****
FINAL SINGLE POINT ENERGY       -79.895747300880
FINAL SINGLE POINT ENERGY       -79.889977923540
FINAL SINGLE POINT ENERGY       -79.896551803350
FINAL SINGLE POINT ENERGY       -79.896360562480
FINAL SINGLE POINT ENERGY       -79.896981579530
FINAL SINGLE POINT ENERGY       -79.896801628860
FINAL SINGLE POINT ENERGY       -79.897104043660
FINAL SINGLE POINT ENERGY       -79.897121710790
FINAL SINGLE POINT ENERGY       -79.897137467270
FINAL SINGLE POINT ENERGY       -79.897143453510
FINAL SINGLE POINT ENERGY       -79.897147147350
FINAL SINGLE POINT ENERGY       -79.897149992680
FINAL SINGLE POINT ENERGY       -79.897151327970
FINAL SINGLE POINT ENERGY       -79.897152487480
                    ***********************HURRAY********************

CARTESIAN COORDINATES (ANGSTROEM)
---------------------------------
  H    -1.973238   -0.631200    4.514840
  H    -0.687888   -2.621742    4.035424
  H    -1.060193    2.698178    2.560126
  H     1.555757    2.655313   -1.863196
  H    -2.584597    0.388712    3.179969
  H    -0.558125    3.519025    0.292049
  H     0.813003   -1.018007    1.634518
  H     0.625163    1.248477   -2.388699
  H    -1.476469   -4.775733    0.429416
  H     1.290608   -0.214384   -0.642771
  H    -2.723980   -2.817408   -0.431270
  H    -2.402605    3.243797   -2.761178
  H    -0.464296   -4.668789    2.690519
  N    -1.771020    2.506256   -2.431596
  C    -0.519600    3.009039   -2.240251
  C    -0.461566    4.434371   -2.510947
  C     0.595229    2.148277   -1.768373
  O    -1.478454    5.020246   -2.942403
  C     0.383892    1.699665   -0.337275
  C    -0.248212    2.525549    0.582806
  C    -0.532179    2.073148    1.856833
  C    -0.175338    0.784115    2.224246
  C     0.518812   -0.024256    1.333535
  C     0.791069    0.434114    0.059900
  O    -0.532938    0.289737    3.473214
  C    -1.818271   -0.334819    3.475321
  C    -1.815145   -1.555294    2.585041
  C    -1.135275   -2.674838    3.054942
  C    -1.007719   -3.824875    2.296776
  C    -1.575610   -3.888171    1.032301
  C    -2.273055   -2.802524    0.548567
  C    -2.391911   -1.636410    1.308995
  N    -3.157138   -0.590765    0.716287
  O    -2.974910    0.573792    1.047566
  O    -3.998779   -0.908330   -0.115000
  C     0.852051    6.503009   -2.501213
  N     0.700855    5.084343   -2.292281
  H     1.472395    4.597653   -1.866087
  H     1.692147    6.695220   -3.167901
  H    -0.065636    6.874143   -2.954197
  H     1.018756    7.016264   -1.553202
  C    -2.292848    1.258279   -2.222224
  O    -1.633957    0.310516   -1.813907
  C    -3.754256    1.180926   -2.565871
  H    -4.299887    1.971899   -2.058109
  H    -3.887739    1.293254   -3.639136
  H    -4.147894    0.218262   -2.250092

FINAL SINGLE POINT ENERGY       -79.897153454500

DIPOLE MOMENT
-------------
                                X             Y             Z
Total Dipole Moment    :      2.28700      -0.93100       0.26600
                        -----------------------------------------
Magnitude (a.u.)       :      2.48352
Magnitude (Debye)      :      6.31261

                             ****ORCA TERMINATED NORMALLY****
TOTAL RUN TIME: 0 days 0 hours 0 minutes 2 seconds 240 msec
