                         Program Version 6.1.0  -  RELEASE   -
|  1>  # --------------------------------- #
|  2>  #  Geometry Optimisation            #
|  3>  # --------------------------------- #
|  4> ! XTB2 ALPB(water) Opt
|  5> *xyzfile 0 1 /home/esp/scriptDevelopment/drFrankenstein/11_PCY_CHARMM/03_GOAT_conformers/PCY_conformer_18.xyz
|  6>
|  7>
|  8>                          ****END OF INPUT****
FINAL SINGLE POINT ENERGY       -79.898229001510
FINAL SINGLE POINT ENERGY       -79.898895572550
FINAL SINGLE POINT ENERGY       -79.897691495790
FINAL SINGLE POINT ENERGY       -79.899286510360
FINAL SINGLE POINT ENERGY       -79.899327443460
FINAL SINGLE POINT ENERGY       -79.899378113910
FINAL SINGLE POINT ENERGY       -79.899418784160
FINAL SINGLE POINT ENERGY       -79.899437871420
FINAL SINGLE POINT ENERGY       -79.899449146290
FINAL SINGLE POINT ENERGY       -79.899456817460
FINAL SINGLE POINT ENERGY       -79.900240715330
FINAL SINGLE POINT ENERGY       -79.900279480510
FINAL SINGLE POINT ENERGY       -79.900294072710
FINAL SINGLE POINT ENERGY       -79.900300764500
FINAL SINGLE POINT ENERGY       -79.900303626580
FINAL SINGLE POINT ENERGY       -79.900305584630
FINAL SINGLE POINT ENERGY       -79.900307020520
FINAL SINGLE POINT ENERGY       -79.900308028650
FINAL SINGLE POINT ENERGY       -79.900309031600
                    ***********************HURRAY********************

CARTESIAN COORDINATES (ANGSTROEM)
---------------------------------
  H    -0.388096   -2.820608    3.295540
  H     0.235371    0.043955    4.562481
  H     0.599562    0.340058    1.613467
  H     1.152922    1.785485   -3.033915
  H     0.888566   -1.602190    3.044372
  H     0.707859    1.873720   -0.273625
  H    -0.548341   -2.820537   -1.019096
  H    -0.196982    0.929199   -3.790535
  H    -3.367892    2.246193    3.920147
  H    -0.423018   -1.268971   -2.932212
  H    -4.075607    0.561556    2.244346
  H    -1.063130    4.492813   -2.242386
  H    -1.223098    1.937902    5.117947
  N    -0.289972    3.865763   -2.492871
  C    -0.739805    2.584516   -2.567501
  C    -2.155350    2.482893   -2.251473
  C     0.136979    1.420481   -2.872744
  O    -2.795259    3.514036   -1.953076
  C     0.122922    0.427599   -1.733297
  C     0.422906    0.846788   -0.445325
  C     0.362539   -0.024114    0.627474
  C    -0.009910   -1.347588    0.420233
  C    -0.275425   -1.786844   -0.876316
  C    -0.211270   -0.907485   -1.936685
  O    -0.153659   -2.291607    1.398178
  C    -0.127766   -1.901681    2.759974
  C    -1.094215   -0.802672    3.127519
  C    -0.719178    0.148324    4.070276
  C    -1.536566    1.222654    4.374781
  C    -2.740977    1.396044    3.708104
  C    -3.138176    0.466148    2.769822
  C    -2.336204   -0.642964    2.506439
  N    -2.860436   -1.610704    1.598939
  O    -2.722560   -2.796881    1.855977
  O    -3.474042   -1.198563    0.620809
  C    -4.097575    1.021080   -1.935879
  N    -2.732447    1.267306   -2.331364
  H    -2.151424    0.457305   -2.479102
  H    -4.662417    0.610020   -2.772667
  H    -4.126188    0.314351   -1.104942
  H    -4.537135    1.969553   -1.633157
  C     0.953028    4.412474   -2.668100
  O     1.947023    3.755631   -2.956697
  C     0.966810    5.901195   -2.466530
  H     1.974713    6.274088   -2.620862
  H     0.291398    6.378280   -3.172154
  H     0.640501    6.144019   -1.458314

FINAL SINGLE POINT ENERGY       -79.900309788350

DIPOLE MOMENT
-------------
                                X             Y             Z
Total Dipole Moment    :      0.54000       1.52600       1.75400
                        -----------------------------------------
Magnitude (a.u.)       :      2.38680
Magnitude (Debye)      :      6.06675

                             ****ORCA TERMINATED NORMALLY****
TOTAL RUN TIME: 0 days 0 hours 0 minutes 4 seconds 424 msec
