                         Program Version 6.1.0  -  RELEASE   -
|  1>  # --------------------------------- #
|  2>  #  Geometry Optimisation            #
|  3>  # --------------------------------- #
|  4> ! XTB2 ALPB(water) Opt
|  5> *xyzfile 0 1 /home/esp/scriptDevelopment/drFrankenstein/11_PCY_CHARMM/03_GOAT_conformers/PCY_conformer_21.xyz
|  6>
|  7>
|  8>                          ****END OF INPUT****
FINAL SINGLE POINT ENERGY       -79.898297515230
FINAL SINGLE POINT ENERGY       -79.899113285090
FINAL SINGLE POINT ENERGY       -79.899324218520
FINAL SINGLE POINT ENERGY       -79.899124409410
FINAL SINGLE POINT ENERGY       -79.899554640940
FINAL SINGLE POINT ENERGY       -79.899582799900
FINAL SINGLE POINT ENERGY       -79.899599811700
FINAL SINGLE POINT ENERGY       -79.899619149940
FINAL SINGLE POINT ENERGY       -79.899625278540
FINAL SINGLE POINT ENERGY       -79.899651147990
FINAL SINGLE POINT ENERGY       -79.901299872770
FINAL SINGLE POINT ENERGY       -79.901371259330
FINAL SINGLE POINT ENERGY       -79.901495128610
FINAL SINGLE POINT ENERGY       -79.901511310420
FINAL SINGLE POINT ENERGY       -79.901536977980
FINAL SINGLE POINT ENERGY       -79.901536893980
FINAL SINGLE POINT ENERGY       -79.901546925980
FINAL SINGLE POINT ENERGY       -79.901547900020
FINAL SINGLE POINT ENERGY       -79.901548423530
                    ***********************HURRAY********************

CARTESIAN COORDINATES (ANGSTROEM)
---------------------------------
  H     0.552861   -1.954223    2.494324
  H    -1.936107    0.592813    2.821429
  H     1.130019    2.311274    1.739724
  H     1.047397    1.820328   -3.173505
  H     0.409054   -1.269697    4.110636
  H     1.010555    3.079210   -0.605910
  H    -0.605079   -1.420571    0.593682
  H    -0.516926    1.020479   -3.352681
  H    -5.312414   -2.017506    3.011850
  H    -0.718358   -0.664246   -1.710200
  H    -3.778764   -3.934957    3.352130
  H    -0.639807    4.977956   -3.371256
  H    -4.364395    0.259429    2.766256
  N    -0.009265    4.168664   -3.413491
  C    -0.606669    3.083556   -2.859015
  C    -1.941874    3.389451   -2.363039
  C     0.040786    1.748378   -2.756408
  O    -2.397237    4.544359   -2.494295
  C     0.121321    1.268696   -1.325409
  C     0.649101    2.097700   -0.339550
  C     0.722475    1.676158    0.969802
  C     0.269553    0.405658    1.330084
  C    -0.248247   -0.432571    0.351170
  C    -0.318506    0.004300   -0.962029
  O     0.370598    0.099008    2.658810
  C     0.023209   -1.198815    3.088132
  C    -1.461174   -1.462421    3.096740
  C    -2.342325   -0.400791    2.926983
  C    -3.712503   -0.589262    2.897035
  C    -4.246456   -1.863103    3.037056
  C    -3.399959   -2.933160    3.222383
  C    -2.013964   -2.745031    3.260550
  N    -1.219449   -3.896094    3.478717
  O    -0.021979   -3.768799    3.735914
  O    -1.755854   -5.002237    3.410512
  C    -3.949134    2.584844   -1.215074
  N    -2.648724    2.387404   -1.805447
  H    -2.198033    1.499461   -1.646494
  H    -3.896129    2.484055   -0.130001
  H    -4.283599    3.589650   -1.466855
  H    -4.652923    1.854263   -1.611250
  C     1.232247    4.350217   -3.966719
  O     2.065343    3.457588   -4.062643
  C     1.455133    5.757743   -4.439669
  H     2.450308    5.839602   -4.865958
  H     0.715739    6.017924   -5.193080
  H     1.359174    6.451327   -3.607952

FINAL SINGLE POINT ENERGY       -79.901548821610

DIPOLE MOMENT
-------------
                                X             Y             Z
Total Dipole Moment    :     -2.29300       2.46100      -1.10100
                        -----------------------------------------
Magnitude (a.u.)       :      3.53929
Magnitude (Debye)      :      8.99616

                             ****ORCA TERMINATED NORMALLY****
TOTAL RUN TIME: 0 days 0 hours 0 minutes 6 seconds 76 msec
