                         Program Version 6.1.0  -  RELEASE   -
|  1>  # --------------------------------- #
|  2>  #  Geometry Optimisation            #
|  3>  # --------------------------------- #
|  4> ! XTB2 ALPB(water) Opt
|  5> *xyzfile 0 1 /home/esp/scriptDevelopment/drFrankenstein/11_PCY_CHARMM/03_GOAT_conformers/PCY_conformer_34.xyz
|  6>
|  7>
|  8>                          ****END OF INPUT****
FINAL SINGLE POINT ENERGY       -79.897785320370
FINAL SINGLE POINT ENERGY       -79.898288359710
FINAL SINGLE POINT ENERGY       -79.897915099820
FINAL SINGLE POINT ENERGY       -79.898964031120
FINAL SINGLE POINT ENERGY       -79.898964756480
FINAL SINGLE POINT ENERGY       -79.899032537560
FINAL SINGLE POINT ENERGY       -79.899049771170
FINAL SINGLE POINT ENERGY       -79.899060867540
FINAL SINGLE POINT ENERGY       -79.899067388950
FINAL SINGLE POINT ENERGY       -79.899069161590
                    ***********************HURRAY********************

CARTESIAN COORDINATES (ANGSTROEM)
---------------------------------
  H    -0.526932   -0.626419    4.690129
  H    -0.794607   -3.399999    3.155806
  H    -1.855635    2.748839    2.429381
  H    -2.779758    0.708220   -2.551009
  H    -1.868718   -1.532367    3.945990
  H    -2.444931    3.323964    0.102688
  H    -2.354247   -1.393259    1.521395
  H    -3.941766    1.973887   -2.124495
  H     2.017609   -3.109901   -0.044218
  H    -2.903194   -0.828033   -0.780247
  H     2.124579   -0.657656    0.303905
  H    -0.045036    3.181442   -2.638356
  H     0.588553   -4.480773    1.444284
  N    -0.592654    2.342425   -2.424484
  C    -1.922197    2.634062   -2.403967
  C    -2.176654    4.027640   -2.725820
  C    -2.922073    1.622574   -1.970378
  O    -1.220379    4.771240   -3.035252
  C    -2.695587    1.282622   -0.511865
  C    -2.430258    2.288854    0.411119
  C    -2.101734    1.979846    1.713457
  C    -2.027832    0.648610    2.120540
  C    -2.366052   -0.357842    1.222886
  C    -2.688314   -0.034917   -0.082153
  O    -1.599205    0.440930    3.403682
  C    -1.054937   -0.822470    3.750764
  C    -0.107062   -1.425905    2.743530
  C    -0.139192   -2.801711    2.541848
  C     0.632447   -3.410805    1.568255
  C     1.437194   -2.646255    0.735860
  C     1.495370   -1.281674    0.918219
  C     0.754286   -0.676055    1.933182
  N     0.951286    0.721024    2.116421
  O     0.900847    1.185621    3.247773
  O     1.219987    1.399816    1.127439
  C    -3.802211    5.845214   -2.976334
  N    -3.448482    4.477351   -2.688348
  H    -4.189035    3.864016   -2.389863
  H    -2.894495    6.370998   -3.267493
  H    -4.522991    5.884035   -3.792890
  H    -4.229504    6.323686   -2.094344
  C     0.076699    1.165656   -2.213778
  O    -0.486851    0.096160   -2.031961
  C     1.569021    1.332607   -2.212796
  H     1.860402    1.692427   -1.225551
  H     2.040237    0.370083   -2.387589
  H     1.893009    2.050193   -2.959332

FINAL SINGLE POINT ENERGY       -79.899070913870

DIPOLE MOMENT
-------------
                                X             Y             Z
Total Dipole Moment    :     -1.70300      -2.35200      -0.80100
                        -----------------------------------------
Magnitude (a.u.)       :      3.01226
Magnitude (Debye)      :      7.65656

                             ****ORCA TERMINATED NORMALLY****
TOTAL RUN TIME: 0 days 0 hours 0 minutes 1 seconds 679 msec
