                         Program Version 6.1.0  -  RELEASE   -
|  1>  # --------------------------------- #
|  2>  #  GOAT conformation generation     #
|  3>  # --------------------------------- #
|  4> !XTB2 GOAT
|  5> %PAL NPROCS 16 END
|  6> %GOAT
|  7> 	MAXITERMULT 1
|  8> 	FREEZEAMIDES TRUE
|  9> 	FREEZECISTRANS TRUE
| 10>  END
| 11> *xyzfile 0 1 /home/esp/scriptDevelopment/drFrankenstein/11_PCY_CHARMM/03_GOAT_conformers/PCY_capped.xyz
| 12>
| 13>                          ****END OF INPUT****
FINAL SINGLE POINT ENERGY       -79.850239474430
FINAL SINGLE POINT ENERGY       -79.851901332230
FINAL SINGLE POINT ENERGY       -79.851651235570
FINAL SINGLE POINT ENERGY       -79.852734138850
FINAL SINGLE POINT ENERGY       -79.852927447400
FINAL SINGLE POINT ENERGY       -79.853146108540
FINAL SINGLE POINT ENERGY       -79.853515132100
FINAL SINGLE POINT ENERGY       -79.853710217880
FINAL SINGLE POINT ENERGY       -79.853889246190
FINAL SINGLE POINT ENERGY       -79.854010709270
FINAL SINGLE POINT ENERGY       -79.854500658180
FINAL SINGLE POINT ENERGY       -79.854607501180
FINAL SINGLE POINT ENERGY       -79.854705350560
FINAL SINGLE POINT ENERGY       -79.854779972430
FINAL SINGLE POINT ENERGY       -79.854820506060
FINAL SINGLE POINT ENERGY       -79.854838241680
FINAL SINGLE POINT ENERGY       -79.854844260040
FINAL SINGLE POINT ENERGY       -79.854846025020
FINAL SINGLE POINT ENERGY       -79.854846716400
                    ***********************HURRAY********************

CARTESIAN COORDINATES (ANGSTROEM)
---------------------------------
  H    -0.040035   -1.885180   -1.248142
  H    -1.102105   -3.149662    1.777235
  H    -1.663314    0.243411    2.252386
  H    -0.432048    4.776260    1.441528
  H     1.372865   -1.825590   -0.180242
  H    -1.703591    2.711437    2.189945
  H     0.934568    0.213154   -1.145024
  H     0.386134    4.738642   -0.135724
  H    -0.378369   -7.288617    0.993226
  H     0.908925    2.640377   -1.183975
  H     1.006441   -6.646118   -0.959810
  H    -1.542846    3.327057   -1.667876
  H    -1.434244   -5.514704    2.362371
  N    -2.022949    4.193162   -1.444394
  C    -1.746276    4.764746   -0.233971
  C    -2.829476    5.464613    0.456318
  C    -0.469008    4.360062    0.435078
  O    -3.998065    5.141714    0.310211
  C    -0.393792    2.851446    0.502499
  C    -1.120945    2.160737    1.466924
  C    -1.106329    0.784524    1.504222
  C    -0.368533    0.055949    0.567687
  C     0.352272    0.738409   -0.405047
  C     0.330590    2.124734   -0.429233
  O    -0.424367   -1.297167    0.696800
  C     0.304323   -2.081460   -0.222605
  C     0.130295   -3.540362    0.092754
  C    -0.642811   -3.922233    1.182880
  C    -0.827771   -5.253561    1.508644
  C    -0.237784   -6.248749    0.743575
  C     0.533063   -5.897496   -0.343013
  C     0.722136   -4.555363   -0.674439
  N     1.539466   -4.283934   -1.821865
  O     1.985188   -5.233070   -2.438924
  O     1.751265   -3.120995   -2.128445
  C    -3.393192    7.222682    2.057783
  N    -2.428473    6.419517    1.348777
  H    -1.493101    6.785608    1.275550
  H    -4.364118    6.746738    1.931280
  H    -3.140328    7.266129    3.118720
  H    -3.440355    8.238170    1.657466
  C    -2.856908    4.748255   -2.402170
  O    -3.231666    5.892833   -2.346897
  C    -3.184561    3.778993   -3.510436
  H    -3.771763    2.955765   -3.108382
  H    -3.764100    4.289575   -4.273416
  H    -2.275305    3.377565   -3.953830

FINAL SINGLE POINT ENERGY       -79.854846991420

DIPOLE MOMENT
-------------
                                X             Y             Z
Total Dipole Moment    :      0.72500      -0.28500       1.73000
                        -----------------------------------------
Magnitude (a.u.)       :      1.89730
Magnitude (Debye)      :      4.82256

                             ****ORCA TERMINATED NORMALLY****
TOTAL RUN TIME: 0 days 0 hours 24 minutes 43 seconds 308 msec
