                         Program Version 6.1.0  -  RELEASE   -
|  1>  # --------------------------------- #
|  2>  #  Geometry Optimisation            #
|  3>  # --------------------------------- #
|  4> ! XTB2 ALPB(water) Opt
|  5> *xyzfile 0 1 /home/esp/scriptDevelopment/drFrankenstein/11_PCY_CHARMM/03_GOAT_conformers/PCY_conformer_30.xyz
|  6>
|  7>
|  8>                          ****END OF INPUT****
FINAL SINGLE POINT ENERGY       -79.895669235950
FINAL SINGLE POINT ENERGY       -79.895353223360
FINAL SINGLE POINT ENERGY       -79.896101763750
FINAL SINGLE POINT ENERGY       -79.896573021370
FINAL SINGLE POINT ENERGY       -79.896721320060
FINAL SINGLE POINT ENERGY       -79.896775662200
FINAL SINGLE POINT ENERGY       -79.896803133640
FINAL SINGLE POINT ENERGY       -79.896819033170
FINAL SINGLE POINT ENERGY       -79.896828505990
FINAL SINGLE POINT ENERGY       -79.896837717520
FINAL SINGLE POINT ENERGY       -79.896840846640
FINAL SINGLE POINT ENERGY       -79.896842733890
FINAL SINGLE POINT ENERGY       -79.896843642360
FINAL SINGLE POINT ENERGY       -79.896844342750
FINAL SINGLE POINT ENERGY       -79.896844819710
                    ***********************HURRAY********************

CARTESIAN COORDINATES (ANGSTROEM)
---------------------------------
  H    -2.968384   -1.427216    1.481869
  H    -0.589309   -2.046898    4.130245
  H     1.000146   -1.127461    0.664041
  H     0.832545    1.297619   -3.406615
  H    -2.340556   -2.561705    2.710328
  H     1.462549    0.384268   -1.238034
  H    -2.777233   -2.128839   -1.044311
  H    -0.692930    0.765403   -4.200257
  H     1.092312    1.871327    4.362783
  H    -2.319420   -0.622465   -2.944939
  H    -0.266470    2.541144    2.415715
  H    -1.085821    3.785259   -1.452412
  H     0.901580   -0.442303    5.238840
  N    -0.431525    3.127741   -1.867269
  C    -0.975391    2.205013   -2.682701
  C    -2.437142    2.195667   -2.868394
  C    -0.219559    1.065800   -3.265407
  O    -2.950995    1.742507   -3.896528
  C    -0.405985   -0.005500   -2.206059
  C     0.536826   -0.168653   -1.199155
  C     0.281380   -1.010424   -0.132759
  C    -0.926274   -1.694166   -0.064308
  C    -1.849340   -1.580532   -1.097785
  C    -1.587571   -0.738041   -2.159330
  O    -1.215353   -2.464102    1.050271
  C    -2.069977   -1.792723    1.985515
  C    -1.303810   -0.684714    2.666597
  C    -0.527468   -1.033673    3.765023
  C     0.322048   -0.132944    4.384207
  C     0.430038    1.161427    3.895248
  C    -0.321273    1.537475    2.805643
  C    -1.194476    0.634177    2.183655
  N    -1.939370    1.144763    1.103674
  O    -1.554220    2.205134    0.568966
  O    -2.968183    0.581519    0.701151
  C    -4.599345    2.683462   -1.851894
  N    -3.154799    2.744694   -1.858109
  H    -2.722437    2.756643   -0.937034
  H    -4.946852    1.885031   -1.192850
  H    -4.996893    3.636090   -1.506283
  H    -4.938715    2.484941   -2.866775
  C     0.885353    3.308691   -1.466029
  O     1.813235    2.637020   -1.877361
  C     1.015488    4.430557   -0.482562
  H     0.320359    4.274001    0.338789
  H     2.032920    4.466770   -0.106304
  H     0.779329    5.376189   -0.965112

FINAL SINGLE POINT ENERGY       -79.896845002370

DIPOLE MOMENT
-------------
                                X             Y             Z
Total Dipole Moment    :      0.76600       1.97000       3.05200
                        -----------------------------------------
Magnitude (a.u.)       :      3.71246
Magnitude (Debye)      :      9.43632

                             ****ORCA TERMINATED NORMALLY****
TOTAL RUN TIME: 0 days 0 hours 0 minutes 2 seconds 610 msec
