                         Program Version 6.1.0  -  RELEASE   -
|  1>  # --------------------------------- #
|  2>  #  Geometry Optimisation            #
|  3>  # --------------------------------- #
|  4> ! XTB2 ALPB(water) Opt
|  5> *xyzfile 0 1 /home/esp/scriptDevelopment/drFrankenstein/11_PCY_CHARMM/03_GOAT_conformers/PCY_conformer_1.xyz
|  6>
|  7>
|  8>                          ****END OF INPUT****
FINAL SINGLE POINT ENERGY       -79.900214693170
FINAL SINGLE POINT ENERGY       -79.900240693830
FINAL SINGLE POINT ENERGY       -79.900579303740
FINAL SINGLE POINT ENERGY       -79.899892131760
FINAL SINGLE POINT ENERGY       -79.900874481350
FINAL SINGLE POINT ENERGY       -79.900938781450
FINAL SINGLE POINT ENERGY       -79.901018104040
FINAL SINGLE POINT ENERGY       -79.901025333530
FINAL SINGLE POINT ENERGY       -79.901030685230
FINAL SINGLE POINT ENERGY       -79.901033853840
FINAL SINGLE POINT ENERGY       -79.901035572450
FINAL SINGLE POINT ENERGY       -79.901037221920
FINAL SINGLE POINT ENERGY       -79.901038107470
FINAL SINGLE POINT ENERGY       -79.901038644680
                    ***********************HURRAY********************

CARTESIAN COORDINATES (ANGSTROEM)
---------------------------------
  H    -0.278366   -0.184881    4.753347
  H    -0.718975   -2.484570    4.770043
  H     0.373998    2.406614    2.069806
  H     0.591983    1.270549   -3.033884
  H    -1.092484    0.932341    3.623017
  H    -0.017263    3.061722   -0.266150
  H     0.508351   -1.694841    0.909828
  H    -1.068858    0.704573   -2.828092
  H    -3.316315   -4.327474    1.922777
  H     0.080785   -1.044738   -1.432656
  H    -3.552491   -2.149707    0.762787
  H    -0.636416    4.613824   -3.374391
  H    -1.915064   -4.470590    3.959534
  N    -0.124064    3.723345   -3.374681
  C    -0.802971    2.797644   -2.651217
  C    -2.037139    3.338790   -2.093722
  C    -0.321067    1.408623   -2.449179
  O    -2.328433    4.535076   -2.309708
  C    -0.027183    1.050479   -1.009811
  C     0.090411    2.016293   -0.017684
  C     0.315578    1.655396    1.296884
  C     0.441631    0.313636    1.634426
  C     0.387047   -0.656939    0.640005
  C     0.150611   -0.285965   -0.669205
  O     0.611845   -0.067298    2.955975
  C    -0.599352   -0.039430    3.721692
  C    -1.489454   -1.174743    3.281645
  C    -1.361371   -2.408991    3.907004
  C    -2.024622   -3.531723    3.441100
  C    -2.811373   -3.453840    2.300920
  C    -2.945529   -2.245974    1.649619
  C    -2.306634   -1.107233    2.143637
  N    -2.544007    0.100059    1.434394
  O    -2.698176    0.028521    0.216179
  O    -2.622890    1.164318    2.044553
  C    -4.009854    2.972223   -0.702744
  N    -2.828811    2.512184   -1.389160
  H    -2.519498    1.578808   -1.150482
  H    -4.165757    4.019881   -0.952663
  H    -4.873135    2.385072   -1.015199
  H    -3.879930    2.867872    0.376586
  C     1.063581    3.661885   -4.058462
  O     1.745929    2.647957   -4.135429
  C     1.429773    4.967182   -4.703100
  H     0.658616    5.261838   -5.410451
  H     1.520406    5.743791   -3.947805
  H     2.375946    4.856461   -5.223885

FINAL SINGLE POINT ENERGY       -79.901038898800

DIPOLE MOMENT
-------------
                                X             Y             Z
Total Dipole Moment    :     -0.65700      -2.15000       0.86800
                        -----------------------------------------
Magnitude (a.u.)       :      2.40989
Magnitude (Debye)      :      6.12546

                             ****ORCA TERMINATED NORMALLY****
TOTAL RUN TIME: 0 days 0 hours 0 minutes 2 seconds 268 msec
