                         Program Version 6.0.1  -  RELEASE   -
|  1>  # --------------------------------- #
|  2>  #  Geometry Optimisation            #
|  3>  # --------------------------------- #
|  4> ! XTB2 ALPB(water) Opt
|  5> %geom
|  6> MaxIter 10
|  7> end
|  8> *xyzfile 2 1 /home/esp/scriptDevelopment/drFrankenstein/10_C8X_AMBER/01_termini_capping/geometry_optimisation/C8X_capped.xyz
|  9>
| 10>
| 11>                          ****END OF INPUT****
FINAL SINGLE POINT ENERGY       -73.264919220040
FINAL SINGLE POINT ENERGY       -73.378162463100
FINAL SINGLE POINT ENERGY       -73.445981576660
FINAL SINGLE POINT ENERGY       -73.493760353500
FINAL SINGLE POINT ENERGY       -73.514762878100
FINAL SINGLE POINT ENERGY       -73.526982558540
FINAL SINGLE POINT ENERGY       -73.532559099390
FINAL SINGLE POINT ENERGY       -73.535718200510
FINAL SINGLE POINT ENERGY       -73.537593788680

CARTESIAN COORDINATES (ANGSTROEM)
---------------------------------
  N    26.079341   33.620332   17.017133
  C    27.019872   33.064795   17.972062
  C    26.501424   33.239049   19.408308
  O    26.560045   32.324853   20.222601
  C    28.369397   33.755866   17.827502
  S    29.496420   33.171064   19.146965
  N    29.601632   37.032664   21.129591
  C    30.856893   34.386571   18.835328
  N    28.855807   39.087687   22.392432
  C    30.493102   35.733909   19.347415
  C    30.634526   36.898723   18.593172
  C    30.251618   38.123574   19.120602
  C    29.728429   38.177598   20.407091
  C    29.958917   35.859430   20.633564
  C    29.269747   39.363261   21.128046
  C    29.216700   40.666576   20.647683
  C    28.731466   41.669929   21.475741
  C    28.314367   41.361851   22.764669
  C    28.392134   40.043716   23.192309
  H    26.456342   34.066461   16.193147
  H    27.118379   31.982577   17.824734
  H    28.256119   34.829267   17.939151
  H    28.820108   33.511215   16.870254
  H    31.088177   34.393237   17.777493
  H    31.704829   33.984586   19.381814
  H    31.038908   36.846342   17.599066
  H    30.359053   39.020009   18.539655
  H    29.814016   34.965820   21.241485
  H    29.543190   40.893209   19.650626
  H    28.675916   42.682273   21.120324
  H    27.936702   42.121216   23.422567
  H    28.092764   39.753388   24.198337
  Pd   28.916728   37.228746   22.918616
  C    25.503426   34.776475   21.004271
  N    26.110759   34.479189   19.723433
  H    25.980471   35.149666   18.980501
  H    24.890187   33.930841   21.321945
  H    26.279613   34.918434   21.758331
  H    24.885361   35.663490   20.920266
  C    24.769295   33.299402   17.056976
  O    24.305569   32.657056   17.994754
  C    23.929270   33.824054   15.925651
  H    23.466470   32.979162   15.420435
  H    23.124561   34.429812   16.335334
  H    24.507948   34.402625   15.214621

FINAL SINGLE POINT ENERGY       -73.538965325430

DIPOLE MOMENT
-------------
                                X             Y             Z
Total Dipole Moment    :    111.13700     146.60000      78.68000
                        -----------------------------------------
Magnitude (a.u.)       :    200.08382
Magnitude (Debye)      :    508.57265

                             ****ORCA TERMINATED NORMALLY****
TOTAL RUN TIME: 0 days 0 hours 0 minutes 0 seconds 729 msec
